TITLE = "Visualization of the volumetric solution"
VARIABLES = "x","y","Density","X-Momentum","Y-Momentum","Energy","Nu_Tilde","Pressure","Temperature","Mach","C<sub>p</sub>","<greek>m</greek>","C<sub>f</sub>_x","C<sub>f</sub>_y","h","y<sup>+</sup>","<greek>m</greek><sub>t</sub>"
ZONE NODES= 13289, ELEMENTS= 13056, DATAPACKING=POINT, ZONETYPE=FEQUADRILATERAL
-3.333300e-01	2.220446e-16	1.336144e+00	9.260221e+01	1.268696e-09	2.908813e+05	4.166710e-05	1.150690e+05	3.000097e+02	1.995959e-01	1.916864e-01	1.845962e-05	0.000000e+00	0.000000e+00	0.000000e+00	0.000000e+00	3.963407e-06	
-2.932630e-01	2.220446e-16	1.336143e+00	9.260055e+01	5.808152e-09	2.908811e+05	4.166712e-05	1.150689e+05	3.000097e+02	1.995924e-01	1.916775e-01	1.845962e-05	0.000000e+00	0.000000e+00	0.000000e+00	0.000000e+00	3.963412e-06	
-2.579639e-01	2.220446e-16	1.336145e+00	9.259724e+01	1.111542e-08	2.908814e+05	4.166714e-05	1.150691e+05	3.000099e+02	1.995849e-01	1.917447e-01	1.845963e-05	0.000000e+00	0.000000e+00	0.000000e+00	0.000000e+00	3.963436e-06	
-2.268587e-01	2.220446e-16	1.336148e+00	9.259251e+01	1.670356e-08	2.908819e+05	4.166720e-05	1.150695e+05	3.000101e+02	1.995743e-01	1.918500e-01	1.845964e-05	0.000000e+00	0.000000e+00	0.000000e+00	0.000000e+00	3.963481e-06	
-1.994419e-01	2.220446e-16	1.336152e+00	9.258661e+01	2.284030e-08	2.908826e+05	4.166721e-05	1.150699e+05	3.000105e+02	1.995609e-01	1.919831e-01	1.845966e-05	0.000000e+00	0.000000e+00	0.000000e+00	0.000000e+00	3.963515e-06	
-1.752676e-01	2.220446e-16	1.336156e+00	9.257969e+01	2.970177e-08	2.908833e+05	4.166741e-05	1.150704e+05	3.000108e+02	1.995452e-01	1.921385e-01	1.845967e-05	0.000000e+00	0.000000e+00	0.000000e+00	0.000000e+00	3.963625e-06	
-1.539429e-01	2.220446e-16	1.336160e+00	9.257190e+01	3.720853e-08	2.908842e+05	4.166772e-05	1.150710e+05	3.000112e+02	1.995276e-01	1.923135e-01	1.845969e-05	0.000000e+00	0.000000e+00	0.000000e+00	0.000000e+00	3.963774e-06	
-1.351210e-01	2.220446e-16	1.336165e+00	9.256343e+01	4.510464e-08	2.908851e+05	4.166776e-05	1.150716e+05	3.000117e+02	1.995084e-01	1.925064e-01	1.845972e-05	0.000000e+00	0.000000e+00	0.000000e+00	0.000000e+00	3.963834e-06	
-1.184959e-01	2.220446e-16	1.336171e+00	9.255445e+01	5.413056e-08	2.908862e+05	4.166870e-05	1.150723e+05	3.000122e+02	1.994881e-01	1.927164e-01	1.845974e-05	0.000000e+00	0.000000e+00	0.000000e+00	0.000000e+00	3.964220e-06	
-1.037973e-01	2.220446e-16	1.336177e+00	9.254475e+01	6.845421e-08	2.908873e+05	4.167037e-05	1.150730e+05	3.000127e+02	1.994661e-01	1.929435e-01	1.845977e-05	0.000000e+00	0.000000e+00	0.000000e+00	0.000000e+00	3.964877e-06	
-9.078621e-02	2.220446e-16	1.336184e+00	9.253336e+01	9.553089e-08	2.908885e+05	4.167063e-05	1.150738e+05	3.000133e+02	1.994404e-01	1.931882e-01	1.845979e-05	0.000000e+00	0.000000e+00	0.000000e+00	0.000000e+00	3.965028e-06	
-7.925117e-02	2.220446e-16	1.336191e+00	9.251902e+01	1.332239e-07	2.908896e+05	4.167524e-05	1.150746e+05	3.000140e+02	1.994082e-01	1.934518e-01	1.845982e-05	0.000000e+00	0.000000e+00	0.000000e+00	0.000000e+00	3.966750e-06	
-6.900461e-02	2.220446e-16	1.336198e+00	9.250292e+01	1.395411e-07	2.908907e+05	4.168525e-05	1.150755e+05	3.000146e+02	1.993722e-01	1.937364e-01	1.845986e-05	0.000000e+00	0.000000e+00	0.000000e+00	0.000000e+00	3.970421e-06	
-5.987994e-02	2.220446e-16	1.336206e+00	9.249264e+01	2.647544e-08	2.908925e+05	4.168892e-05	1.150765e+05	3.000154e+02	1.993485e-01	1.940453e-01	1.845989e-05	0.000000e+00	0.000000e+00	0.000000e+00	0.000000e+00	3.971817e-06	
-5.172879e-02	2.220446e-16	1.336215e+00	9.249950e+01	-1.983145e-07	2.908956e+05	4.172134e-05	1.150776e+05	3.000162e+02	1.993617e-01	1.943845e-01	1.845993e-05	0.000000e+00	0.000000e+00	0.000000e+00	0.000000e+00	3.983604e-06	
-4.441866e-02	2.220446e-16	1.336225e+00	9.251638e+01	-5.621314e-08	2.908998e+05	4.180580e-05	1.150788e+05	3.000171e+02	1.993963e-01	1.947641e-01	1.845997e-05	0.000000e+00	0.000000e+00	0.000000e+00	0.000000e+00	4.014302e-06	
-3.783070e-02	2.220446e-16	1.336237e+00	9.247969e+01	1.588446e-06	2.909007e+05	4.185558e-05	1.150802e+05	3.000181e+02	1.993151e-01	1.951959e-01	1.846002e-05	0.000000e+00	0.000000e+00	0.000000e+00	0.000000e+00	4.032523e-06	
-3.185779e-02	2.220446e-16	1.336250e+00	9.227658e+01	5.055519e-06	2.908905e+05	4.202956e-05	1.150818e+05	3.000193e+02	1.988751e-01	1.956820e-01	1.846007e-05	0.000000e+00	0.000000e+00	0.000000e+00	0.000000e+00	4.096405e-06	
-2.640282e-02	2.220446e-16	1.336263e+00	9.192255e+01	5.294545e-06	2.908703e+05	4.263168e-05	1.150834e+05	3.000206e+02	1.981096e-01	1.962082e-01	1.846014e-05	0.000000e+00	0.000000e+00	0.000000e+00	0.000000e+00	4.322619e-06	
-2.137712e-02	2.220446e-16	1.336280e+00	9.194111e+01	-1.222177e-05	2.908763e+05	4.318829e-05	1.150854e+05	3.000220e+02	1.981468e-01	1.968037e-01	1.846020e-05	0.000000e+00	0.000000e+00	0.000000e+00	0.000000e+00	4.539324e-06	
-1.669897e-02	2.220446e-16	1.336308e+00	9.349303e+01	-5.883841e-05	2.909915e+05	4.479455e-05	1.150884e+05	3.000235e+02	2.014866e-01	1.977507e-01	1.846028e-05	0.000000e+00	0.000000e+00	0.000000e+00	0.000000e+00	5.206199e-06	
-1.229231e-02	2.220446e-16	1.336308e+00	9.699901e+01	-1.001215e-04	2.912584e+05	5.357470e-05	1.150952e+05	3.000413e+02	2.090362e-01	1.998760e-01	1.846112e-05	0.000000e+00	0.000000e+00	0.000000e+00	0.000000e+00	1.003126e-05	
-8.085507e-03	2.220446e-16	1.336489e+00	9.779936e+01	4.259388e-05	2.913518e+05	6.717535e-05	1.151094e+05	3.000377e+02	2.107337e-01	2.043048e-01	1.846094e-05	0.000000e+00	0.000000e+00	0.000000e+00	0.000000e+00	2.183452e-05	
-4.010155e-03	2.220446e-16	1.336467e+00	7.890169e+01	5.554835e-03	2.901369e+05	1.118744e-04	1.151231e+05	3.000784e+02	1.700051e-01	2.085920e-01	1.846287e-05	0.000000e+00	0.000000e+00	0.000000e+00	0.000000e+00	8.932128e-05	
0.000000e+00	2.220446e-16	1.324704e+00	0.000000e+00	0.000000e+00	2.877220e+05	1.000000e-10	1.150888e+05	3.026528e+02	0.000000e+00	1.978810e-01	1.858442e-05	1.388944e-02	0.000000e+00	-1.292906e+02	8.283007e-01	1.340458e-28	
4.011888e-03	2.220446e-16	1.325650e+00	0.000000e+00	0.000000e+00	2.876485e+05	1.000000e-10	1.150594e+05	3.023595e+02	0.000000e+00	1.887032e-01	1.857060e-05	4.753664e-03	0.000000e+00	-1.789493e+01	4.851075e-01	1.347295e-28	
8.056205e-03	2.220446e-16	1.326477e+00	0.000000e+00	0.000000e+00	2.876786e+05	1.000000e-10	1.150714e+05	3.022026e+02	0.000000e+00	1.924594e-01	1.856320e-05	4.561742e-03	0.000000e+00	-1.148175e+01	4.755515e-01	1.352276e-28	
1.213423e-02	2.220446e-16	1.326746e+00	0.000000e+00	0.000000e+00	2.876786e+05	1.000000e-10	1.150714e+05	3.021412e+02	0.000000e+00	1.924600e-01	1.856030e-05	4.654325e-03	0.000000e+00	-1.195177e+01	4.804768e-01	1.354008e-28	
1.624727e-02	2.220446e-16	1.326826e+00	0.000000e+00	0.000000e+00	2.876800e+05	1.000000e-10	1.150720e+05	3.021245e+02	0.000000e+00	1.926359e-01	1.855951e-05	4.651370e-03	0.000000e+00	-1.193700e+01	4.803592e-01	1.354508e-28	
2.039667e-02	2.220446e-16	1.326836e+00	0.000000e+00	0.000000e+00	2.876793e+05	1.000000e-10	1.150717e+05	3.021215e+02	0.000000e+00	1.925555e-01	1.855937e-05	4.595155e-03	0.000000e+00	-1.165038e+01	4.774531e-01	1.354580e-28	
2.458382e-02	2.220446e-16	1.326829e+00	0.000000e+00	0.000000e+00	2.876784e+05	1.000000e-10	1.150714e+05	3.021221e+02	0.000000e+00	1.924363e-01	1.855940e-05	4.524320e-03	0.000000e+00	-1.129401e+01	4.737567e-01	1.354544e-28	
2.881016e-02	2.220446e-16	1.326818e+00	0.000000e+00	0.000000e+00	2.876773e+05	1.000000e-10	1.150709e+05	3.021236e+02	0.000000e+00	1.922964e-01	1.855947e-05	4.455134e-03	0.000000e+00	-1.095122e+01	4.701165e-01	1.354480e-28	
3.307715e-02	2.220446e-16	1.326804e+00	0.000000e+00	0.000000e+00	2.876761e+05	1.000000e-10	1.150705e+05	3.021254e+02	0.000000e+00	1.921543e-01	1.855956e-05	4.391110e-03	0.000000e+00	-1.063869e+01	4.667219e-01	1.354409e-28	
3.738632e-02	2.220446e-16	1.326791e+00	0.000000e+00	0.000000e+00	2.876750e+05	1.000000e-10	1.150700e+05	3.021273e+02	0.000000e+00	1.920145e-01	1.855965e-05	4.332047e-03	0.000000e+00	-1.035438e+01	4.635679e-01	1.354335e-28	
4.173924e-02	2.220446e-16	1.326778e+00	0.000000e+00	0.000000e+00	2.876739e+05	1.000000e-10	1.150696e+05	3.021291e+02	0.000000e+00	1.918796e-01	1.855973e-05	4.277235e-03	0.000000e+00	-1.009397e+01	4.606214e-01	1.354262e-28	
4.613751e-02	2.220446e-16	1.326765e+00	0.000000e+00	0.000000e+00	2.876729e+05	1.000000e-10	1.150692e+05	3.021309e+02	0.000000e+00	1.917508e-01	1.855982e-05	4.226112e-03	0.000000e+00	-9.854079e+00	4.578562e-01	1.354193e-28	
5.058283e-02	2.220446e-16	1.326754e+00	0.000000e+00	0.000000e+00	2.876719e+05	1.000000e-10	1.150688e+05	3.021325e+02	0.000000e+00	1.916285e-01	1.855989e-05	4.178248e-03	0.000000e+00	-9.632096e+00	4.552521e-01	1.354128e-28	
5.507691e-02	2.220446e-16	1.326743e+00	0.000000e+00	0.000000e+00	2.876710e+05	1.000000e-10	1.150684e+05	3.021341e+02	0.000000e+00	1.915125e-01	1.855997e-05	4.133288e-03	0.000000e+00	-9.425888e+00	4.527925e-01	1.354067e-28	
5.962155e-02	2.220446e-16	1.326732e+00	0.000000e+00	0.000000e+00	2.876701e+05	1.000000e-10	1.150680e+05	3.021355e+02	0.000000e+00	1.914025e-01	1.856003e-05	4.090927e-03	0.000000e+00	-9.233638e+00	4.504628e-01	1.354010e-28	
6.421860e-02	2.220446e-16	1.326723e+00	0.000000e+00	0.000000e+00	2.876693e+05	1.000000e-10	1.150677e+05	3.021368e+02	0.000000e+00	1.912981e-01	1.856010e-05	4.050896e-03	0.000000e+00	-9.053788e+00	4.482503e-01	1.353957e-28	
6.886998e-02	2.220446e-16	1.326714e+00	0.000000e+00	0.000000e+00	2.876685e+05	1.000000e-10	1.150674e+05	3.021381e+02	0.000000e+00	1.911989e-01	1.856016e-05	4.012965e-03	0.000000e+00	-8.885003e+00	4.461438e-01	1.353907e-28	
7.357766e-02	2.220446e-16	1.326705e+00	0.000000e+00	0.000000e+00	2.876677e+05	1.000000e-10	1.150671e+05	3.021392e+02	0.000000e+00	1.911045e-01	1.856021e-05	3.976930e-03	0.000000e+00	-8.726130e+00	4.441334e-01	1.353860e-28	
7.834372e-02	2.220446e-16	1.326697e+00	0.000000e+00	0.000000e+00	2.876670e+05	1.000000e-10	1.150668e+05	3.021403e+02	0.000000e+00	1.910145e-01	1.856026e-05	3.942616e-03	0.000000e+00	-8.576174e+00	4.422107e-01	1.353816e-28	
8.317028e-02	2.220446e-16	1.326689e+00	0.000000e+00	0.000000e+00	2.876663e+05	1.000000e-10	1.150665e+05	3.021413e+02	0.000000e+00	1.909284e-01	1.856031e-05	3.909867e-03	0.000000e+00	-8.434272e+00	4.403679e-01	1.353775e-28	
8.805957e-02	2.220446e-16	1.326682e+00	0.000000e+00	0.000000e+00	2.876656e+05	1.000000e-10	1.150663e+05	3.021422e+02	0.000000e+00	1.908460e-01	1.856035e-05	3.878546e-03	0.000000e+00	-8.299668e+00	4.385983e-01	1.353736e-28	
9.301388e-02	2.220446e-16	1.326675e+00	0.000000e+00	0.000000e+00	2.876650e+05	1.000000e-10	1.150660e+05	3.021431e+02	0.000000e+00	1.907670e-01	1.856039e-05	3.848533e-03	0.000000e+00	-8.171699e+00	4.368959e-01	1.353699e-28	
9.803561e-02	2.220446e-16	1.326669e+00	0.000000e+00	0.000000e+00	2.876644e+05	1.000000e-10	1.150658e+05	3.021439e+02	0.000000e+00	1.906911e-01	1.856043e-05	3.819720e-03	0.000000e+00	-8.049781e+00	4.352554e-01	1.353665e-28	
1.031273e-01	2.220446e-16	1.326663e+00	0.000000e+00	0.000000e+00	2.876638e+05	1.000000e-10	1.150655e+05	3.021447e+02	0.000000e+00	1.906179e-01	1.856047e-05	3.792009e-03	0.000000e+00	-7.933395e+00	4.336719e-01	1.353631e-28	
1.082914e-01	2.220446e-16	1.326657e+00	0.000000e+00	0.000000e+00	2.876633e+05	1.000000e-10	1.150653e+05	3.021455e+02	0.000000e+00	1.905474e-01	1.856050e-05	3.765316e-03	0.000000e+00	-7.822083e+00	4.321410e-01	1.353600e-28	
1.135307e-01	2.220446e-16	1.326651e+00	0.000000e+00	0.000000e+00	2.876627e+05	1.000000e-10	1.150651e+05	3.021462e+02	0.000000e+00	1.904793e-01	1.856054e-05	3.739562e-03	0.000000e+00	-7.715435e+00	4.306589e-01	1.353570e-28	
1.188480e-01	2.220446e-16	1.326646e+00	0.000000e+00	0.000000e+00	2.876622e+05	1.000000e-10	1.150649e+05	3.021468e+02	0.000000e+00	1.904133e-01	1.856057e-05	3.714678e-03	0.000000e+00	-7.613082e+00	4.292221e-01	1.353541e-28	
1.242462e-01	2.220446e-16	1.326641e+00	0.000000e+00	0.000000e+00	2.876617e+05	1.000000e-10	1.150647e+05	3.021475e+02	0.000000e+00	1.903494e-01	1.856060e-05	3.690600e-03	0.000000e+00	-7.514696e+00	4.278272e-01	1.353513e-28	
1.297284e-01	2.220446e-16	1.326636e+00	0.000000e+00	0.000000e+00	2.876612e+05	1.000000e-10	1.150645e+05	3.021481e+02	0.000000e+00	1.902874e-01	1.856063e-05	3.667270e-03	0.000000e+00	-7.419979e+00	4.264714e-01	1.353487e-28	
1.352978e-01	2.220446e-16	1.326631e+00	0.000000e+00	0.000000e+00	2.876607e+05	1.000000e-10	1.150643e+05	3.021486e+02	0.000000e+00	1.902271e-01	1.856065e-05	3.644636e-03	0.000000e+00	-7.328663e+00	4.251519e-01	1.353462e-28	
1.409576e-01	2.220446e-16	1.326627e+00	0.000000e+00	0.000000e+00	2.876602e+05	1.000000e-10	1.150641e+05	3.021492e+02	0.000000e+00	1.901685e-01	1.856068e-05	3.622651e-03	0.000000e+00	-7.240506e+00	4.238663e-01	1.353437e-28	
1.467113e-01	2.220446e-16	1.326622e+00	0.000000e+00	0.000000e+00	2.876598e+05	1.000000e-10	1.150639e+05	3.021497e+02	0.000000e+00	1.901114e-01	1.856071e-05	3.601271e-03	0.000000e+00	-7.155285e+00	4.226124e-01	1.353413e-28	
1.525626e-01	2.220446e-16	1.326618e+00	0.000000e+00	0.000000e+00	2.876593e+05	1.000000e-10	1.150637e+05	3.021502e+02	0.000000e+00	1.900556e-01	1.856073e-05	3.580455e-03	0.000000e+00	-7.072799e+00	4.213880e-01	1.353391e-28	
1.585153e-01	2.220446e-16	1.326614e+00	0.000000e+00	0.000000e+00	2.876589e+05	1.000000e-10	1.150636e+05	3.021507e+02	0.000000e+00	1.900011e-01	1.856075e-05	3.560167e-03	0.000000e+00	-6.992863e+00	4.201913e-01	1.353368e-28	
1.645732e-01	2.220446e-16	1.326610e+00	0.000000e+00	0.000000e+00	2.876585e+05	1.000000e-10	1.150634e+05	3.021512e+02	0.000000e+00	1.899479e-01	1.856077e-05	3.540372e-03	0.000000e+00	-6.915310e+00	4.190204e-01	1.353347e-28	
1.707407e-01	2.220446e-16	1.326606e+00	0.000000e+00	0.000000e+00	2.876580e+05	1.000000e-10	1.150632e+05	3.021517e+02	0.000000e+00	1.898958e-01	1.856080e-05	3.521039e-03	0.000000e+00	-6.839983e+00	4.178736e-01	1.353326e-28	
1.770220e-01	2.220446e-16	1.326602e+00	0.000000e+00	0.000000e+00	2.876576e+05	1.000000e-10	1.150631e+05	3.021521e+02	0.000000e+00	1.898447e-01	1.856082e-05	3.502138e-03	0.000000e+00	-6.766740e+00	4.167495e-01	1.353306e-28	
1.834217e-01	2.220446e-16	1.326598e+00	0.000000e+00	0.000000e+00	2.876572e+05	1.000000e-10	1.150629e+05	3.021525e+02	0.000000e+00	1.897946e-01	1.856084e-05	3.483643e-03	0.000000e+00	-6.695449e+00	4.156465e-01	1.353287e-28	
1.899446e-01	2.220446e-16	1.326595e+00	0.000000e+00	0.000000e+00	2.876568e+05	1.000000e-10	1.150627e+05	3.021529e+02	0.000000e+00	1.897455e-01	1.856086e-05	3.465528e-03	0.000000e+00	-6.625989e+00	4.145634e-01	1.353268e-28	
1.965957e-01	2.220446e-16	1.326591e+00	0.000000e+00	0.000000e+00	2.876564e+05	1.000000e-10	1.150626e+05	3.021533e+02	0.000000e+00	1.896971e-01	1.856088e-05	3.447768e-03	0.000000e+00	-6.558248e+00	4.134988e-01	1.353249e-28	
2.033804e-01	2.220446e-16	1.326588e+00	0.000000e+00	0.000000e+00	2.876561e+05	1.000000e-10	1.150624e+05	3.021537e+02	0.000000e+00	1.896496e-01	1.856089e-05	3.430344e-03	0.000000e+00	-6.492119e+00	4.124517e-01	1.353231e-28	
2.103042e-01	2.220446e-16	1.326584e+00	0.000000e+00	0.000000e+00	2.876557e+05	1.000000e-10	1.150623e+05	3.021541e+02	0.000000e+00	1.896029e-01	1.856091e-05	3.413232e-03	0.000000e+00	-6.427506e+00	4.114208e-01	1.353213e-28	
2.173729e-01	2.220446e-16	1.326581e+00	0.000000e+00	0.000000e+00	2.876553e+05	1.000000e-10	1.150621e+05	3.021545e+02	0.000000e+00	1.895568e-01	1.856093e-05	3.396415e-03	0.000000e+00	-6.364320e+00	4.104051e-01	1.353196e-28	
2.245927e-01	2.220446e-16	1.326578e+00	0.000000e+00	0.000000e+00	2.876550e+05	1.000000e-10	1.150620e+05	3.021548e+02	0.000000e+00	1.895114e-01	1.856095e-05	3.379874e-03	0.000000e+00	-6.302474e+00	4.094036e-01	1.353179e-28	
2.319702e-01	2.220446e-16	1.326574e+00	0.000000e+00	0.000000e+00	2.876546e+05	1.000000e-10	1.150618e+05	3.021552e+02	0.000000e+00	1.894666e-01	1.856096e-05	3.363591e-03	0.000000e+00	-6.241890e+00	4.084154e-01	1.353163e-28	
2.395121e-01	2.220446e-16	1.326571e+00	0.000000e+00	0.000000e+00	2.876542e+05	1.000000e-10	1.150617e+05	3.021555e+02	0.000000e+00	1.894224e-01	1.856098e-05	3.347550e-03	0.000000e+00	-6.182494e+00	4.074396e-01	1.353146e-28	
2.472258e-01	2.220446e-16	1.326568e+00	0.000000e+00	0.000000e+00	2.876539e+05	1.000000e-10	1.150616e+05	3.021558e+02	0.000000e+00	1.893787e-01	1.856099e-05	3.331737e-03	0.000000e+00	-6.124216e+00	4.064753e-01	1.353130e-28	
2.551188e-01	2.220446e-16	1.326565e+00	0.000000e+00	0.000000e+00	2.876535e+05	1.000000e-10	1.150614e+05	3.021562e+02	0.000000e+00	1.893355e-01	1.856101e-05	3.316136e-03	0.000000e+00	-6.066992e+00	4.055217e-01	1.353115e-28	
2.631993e-01	2.220446e-16	1.326562e+00	0.000000e+00	0.000000e+00	2.876532e+05	1.000000e-10	1.150613e+05	3.021565e+02	0.000000e+00	1.892927e-01	1.856102e-05	3.300733e-03	0.000000e+00	-6.010758e+00	4.045780e-01	1.353100e-28	
2.714757e-01	2.220446e-16	1.326559e+00	0.000000e+00	0.000000e+00	2.876529e+05	1.000000e-10	1.150611e+05	3.021568e+02	0.000000e+00	1.892505e-01	1.856104e-05	3.285515e-03	0.000000e+00	-5.955456e+00	4.036435e-01	1.353084e-28	
2.799573e-01	2.220446e-16	1.326556e+00	0.000000e+00	0.000000e+00	2.876525e+05	1.000000e-10	1.150610e+05	3.021571e+02	0.000000e+00	1.892086e-01	1.856105e-05	3.270470e-03	0.000000e+00	-5.901033e+00	4.027175e-01	1.353070e-28	
2.886535e-01	2.220446e-16	1.326554e+00	0.000000e+00	0.000000e+00	2.876522e+05	1.000000e-10	1.150609e+05	3.021574e+02	0.000000e+00	1.891671e-01	1.856107e-05	3.255585e-03	0.000000e+00	-5.847436e+00	4.017993e-01	1.353055e-28	
2.975746e-01	2.220446e-16	1.326551e+00	0.000000e+00	0.000000e+00	2.876519e+05	1.000000e-10	1.150607e+05	3.021577e+02	0.000000e+00	1.891259e-01	1.856108e-05	3.240848e-03	0.000000e+00	-5.794615e+00	4.008882e-01	1.353041e-28	
3.067315e-01	2.220446e-16	1.326548e+00	0.000000e+00	0.000000e+00	2.876515e+05	1.000000e-10	1.150606e+05	3.021580e+02	0.000000e+00	1.890851e-01	1.856109e-05	3.226249e-03	0.000000e+00	-5.742522e+00	3.999835e-01	1.353026e-28	
3.161355e-01	2.220446e-16	1.326545e+00	0.000000e+00	0.000000e+00	2.876512e+05	1.000000e-10	1.150605e+05	3.021582e+02	0.000000e+00	1.890446e-01	1.856111e-05	3.211776e-03	0.000000e+00	-5.691113e+00	3.990846e-01	1.353012e-28	
3.257991e-01	2.220446e-16	1.326543e+00	0.000000e+00	0.000000e+00	2.876509e+05	1.000000e-10	1.150604e+05	3.021585e+02	0.000000e+00	1.890044e-01	1.856112e-05	3.197420e-03	0.000000e+00	-5.640345e+00	3.981910e-01	1.352998e-28	
3.357352e-01	2.220446e-16	1.326540e+00	0.000000e+00	0.000000e+00	2.876506e+05	1.000000e-10	1.150602e+05	3.021588e+02	0.000000e+00	1.889645e-01	1.856113e-05	3.183169e-03	0.000000e+00	-5.590176e+00	3.973020e-01	1.352985e-28	
3.459577e-01	2.220446e-16	1.326537e+00	0.000000e+00	0.000000e+00	2.876503e+05	1.000000e-10	1.150601e+05	3.021591e+02	0.000000e+00	1.889247e-01	1.856115e-05	3.169014e-03	0.000000e+00	-5.540568e+00	3.964170e-01	1.352971e-28	
3.564816e-01	2.220446e-16	1.326535e+00	0.000000e+00	0.000000e+00	2.876499e+05	1.000000e-10	1.150600e+05	3.021593e+02	0.000000e+00	1.888853e-01	1.856116e-05	3.154946e-03	0.000000e+00	-5.491481e+00	3.955355e-01	1.352958e-28	
3.673226e-01	2.220446e-16	1.326532e+00	0.000000e+00	0.000000e+00	2.876496e+05	1.000000e-10	1.150598e+05	3.021596e+02	0.000000e+00	1.888460e-01	1.856117e-05	3.140955e-03	0.000000e+00	-5.442879e+00	3.946568e-01	1.352945e-28	
3.784979e-01	2.220446e-16	1.326530e+00	0.000000e+00	0.000000e+00	2.876493e+05	1.000000e-10	1.150597e+05	3.021598e+02	0.000000e+00	1.888070e-01	1.856118e-05	3.127031e-03	0.000000e+00	-5.394728e+00	3.937805e-01	1.352931e-28	
3.900256e-01	2.220446e-16	1.326527e+00	0.000000e+00	0.000000e+00	2.876490e+05	1.000000e-10	1.150596e+05	3.021601e+02	0.000000e+00	1.887681e-01	1.856119e-05	3.113166e-03	0.000000e+00	-5.346991e+00	3.929059e-01	1.352918e-28	
4.019253e-01	2.220446e-16	1.326524e+00	0.000000e+00	0.000000e+00	2.876487e+05	1.000000e-10	1.150595e+05	3.021603e+02	0.000000e+00	1.887294e-01	1.856121e-05	3.099351e-03	0.000000e+00	-5.299636e+00	3.920325e-01	1.352906e-28	
4.142179e-01	2.220446e-16	1.326522e+00	0.000000e+00	0.000000e+00	2.876484e+05	1.000000e-10	1.150594e+05	3.021606e+02	0.000000e+00	1.886909e-01	1.856122e-05	3.085576e-03	0.000000e+00	-5.252631e+00	3.911597e-01	1.352893e-28	
4.269261e-01	2.220446e-16	1.326519e+00	0.000000e+00	0.000000e+00	2.876481e+05	1.000000e-10	1.150592e+05	3.021608e+02	0.000000e+00	1.886525e-01	1.856123e-05	3.071834e-03	0.000000e+00	-5.205943e+00	3.902870e-01	1.352880e-28	
4.400740e-01	2.220446e-16	1.326517e+00	0.000000e+00	0.000000e+00	2.876478e+05	1.000000e-10	1.150591e+05	3.021611e+02	0.000000e+00	1.886142e-01	1.856124e-05	3.058114e-03	0.000000e+00	-5.159541e+00	3.894139e-01	1.352867e-28	
4.536880e-01	2.220446e-16	1.326515e+00	0.000000e+00	0.000000e+00	2.876475e+05	1.000000e-10	1.150590e+05	3.021613e+02	0.000000e+00	1.885761e-01	1.856125e-05	3.044408e-03	0.000000e+00	-5.113394e+00	3.885397e-01	1.352855e-28	
4.677963e-01	2.220446e-16	1.326512e+00	0.000000e+00	0.000000e+00	2.876472e+05	1.000000e-10	1.150589e+05	3.021616e+02	0.000000e+00	1.885381e-01	1.856126e-05	3.030708e-03	0.000000e+00	-5.067472e+00	3.876638e-01	1.352842e-28	
4.824296e-01	2.220446e-16	1.326510e+00	0.000000e+00	0.000000e+00	2.876469e+05	1.000000e-10	1.150587e+05	3.021618e+02	0.000000e+00	1.885002e-01	1.856127e-05	3.017004e-03	0.000000e+00	-5.021746e+00	3.867858e-01	1.352830e-28	
4.976210e-01	2.220446e-16	1.326507e+00	0.000000e+00	0.000000e+00	2.876466e+05	1.000000e-10	1.150586e+05	3.021620e+02	0.000000e+00	1.884624e-01	1.856129e-05	3.003287e-03	0.000000e+00	-4.976185e+00	3.859050e-01	1.352818e-28	
5.134066e-01	2.220446e-16	1.326505e+00	0.000000e+00	0.000000e+00	2.876462e+05	1.000000e-10	1.150585e+05	3.021623e+02	0.000000e+00	1.884248e-01	1.856130e-05	2.989549e-03	0.000000e+00	-4.930760e+00	3.850207e-01	1.352805e-28	
5.298255e-01	2.220446e-16	1.326502e+00	0.000000e+00	0.000000e+00	2.876459e+05	1.000000e-10	1.150584e+05	3.021625e+02	0.000000e+00	1.883872e-01	1.856131e-05	2.975779e-03	0.000000e+00	-4.885440e+00	3.841324e-01	1.352793e-28	
5.469203e-01	2.220446e-16	1.326500e+00	0.000000e+00	0.000000e+00	2.876456e+05	1.000000e-10	1.150583e+05	3.021627e+02	0.000000e+00	1.883498e-01	1.856132e-05	2.961969e-03	0.000000e+00	-4.840198e+00	3.832395e-01	1.352781e-28	
5.647377e-01	2.220446e-16	1.326498e+00	0.000000e+00	0.000000e+00	2.876454e+05	1.000000e-10	1.150581e+05	3.021630e+02	0.000000e+00	1.883125e-01	1.856133e-05	2.948108e-03	0.000000e+00	-4.795002e+00	3.823412e-01	1.352769e-28	
5.833284e-01	2.220446e-16	1.326495e+00	0.000000e+00	0.000000e+00	2.876451e+05	1.000000e-10	1.150580e+05	3.021632e+02	0.000000e+00	1.882753e-01	1.856134e-05	2.934187e-03	0.000000e+00	-4.749823e+00	3.814368e-01	1.352757e-28	
6.027481e-01	2.220446e-16	1.326493e+00	0.000000e+00	0.000000e+00	2.876448e+05	1.000000e-10	1.150579e+05	3.021634e+02	0.000000e+00	1.882383e-01	1.856135e-05	2.920196e-03	0.000000e+00	-4.704629e+00	3.805257e-01	1.352745e-28	
6.230582e-01	2.220446e-16	1.326490e+00	0.000000e+00	0.000000e+00	2.876445e+05	1.000000e-10	1.150578e+05	3.021636e+02	0.000000e+00	1.882014e-01	1.856136e-05	2.906122e-03	0.000000e+00	-4.659390e+00	3.796071e-01	1.352733e-28	
6.443259e-01	2.220446e-16	1.326488e+00	0.000000e+00	0.000000e+00	2.876442e+05	1.000000e-10	1.150577e+05	3.021639e+02	0.000000e+00	1.881647e-01	1.856137e-05	2.891956e-03	0.000000e+00	-4.614074e+00	3.786803e-01	1.352721e-28	
6.666254e-01	2.220446e-16	1.326486e+00	0.000000e+00	0.000000e+00	2.876439e+05	1.000000e-10	1.150575e+05	3.021641e+02	0.000000e+00	1.881282e-01	1.856138e-05	2.877686e-03	0.000000e+00	-4.568647e+00	3.777442e-01	1.352709e-28	
6.900390e-01	2.220446e-16	1.326483e+00	0.000000e+00	0.000000e+00	2.876436e+05	1.000000e-10	1.150574e+05	3.021643e+02	0.000000e+00	1.880918e-01	1.856139e-05	2.863299e-03	0.000000e+00	-4.523077e+00	3.767982e-01	1.352697e-28	
7.146577e-01	2.220446e-16	1.326481e+00	0.000000e+00	0.000000e+00	2.876433e+05	1.000000e-10	1.150573e+05	3.021646e+02	0.000000e+00	1.880558e-01	1.856140e-05	2.848783e-03	0.000000e+00	-4.477329e+00	3.758413e-01	1.352685e-28	
7.405826e-01	2.220446e-16	1.326479e+00	0.000000e+00	0.000000e+00	2.876430e+05	1.000000e-10	1.150572e+05	3.021648e+02	0.000000e+00	1.880200e-01	1.856142e-05	2.834123e-03	0.000000e+00	-4.431366e+00	3.748725e-01	1.352673e-28	
7.679266e-01	2.220446e-16	1.326476e+00	0.000000e+00	0.000000e+00	2.876427e+05	1.000000e-10	1.150571e+05	3.021650e+02	0.000000e+00	1.879845e-01	1.856143e-05	2.819306e-03	0.000000e+00	-4.385149e+00	3.738907e-01	1.352661e-28	
7.968158e-01	2.220446e-16	1.326474e+00	0.000000e+00	0.000000e+00	2.876424e+05	1.000000e-10	1.150570e+05	3.021653e+02	0.000000e+00	1.879494e-01	1.856144e-05	2.804315e-03	0.000000e+00	-4.338638e+00	3.728948e-01	1.352649e-28	
8.273920e-01	2.220446e-16	1.326472e+00	0.000000e+00	0.000000e+00	2.876422e+05	1.000000e-10	1.150569e+05	3.021655e+02	0.000000e+00	1.879147e-01	1.856145e-05	2.789136e-03	0.000000e+00	-4.291795e+00	3.718837e-01	1.352638e-28	
8.598143e-01	2.220446e-16	1.326470e+00	0.000000e+00	0.000000e+00	2.876419e+05	1.000000e-10	1.150568e+05	3.021657e+02	0.000000e+00	1.878804e-01	1.856146e-05	2.773753e-03	0.000000e+00	-4.244583e+00	3.708563e-01	1.352626e-28	
8.942629e-01	2.220446e-16	1.326467e+00	0.000000e+00	0.000000e+00	2.876416e+05	1.000000e-10	1.150566e+05	3.021660e+02	0.000000e+00	1.878469e-01	1.856147e-05	2.758152e-03	0.000000e+00	-4.196969e+00	3.698113e-01	1.352614e-28	
9.309419e-01	2.220446e-16	1.326465e+00	0.000000e+00	0.000000e+00	2.876414e+05	1.000000e-10	1.150565e+05	3.021662e+02	0.000000e+00	1.878143e-01	1.856148e-05	2.742312e-03	0.000000e+00	-4.148898e+00	3.687473e-01	1.352602e-28	
9.700840e-01	2.220446e-16	1.326463e+00	0.000000e+00	0.000000e+00	2.876411e+05	1.000000e-10	1.150564e+05	3.021664e+02	0.000000e+00	1.877834e-01	1.856149e-05	2.726190e-03	0.000000e+00	-4.100258e+00	3.676613e-01	1.352591e-28	
1.011955e+00	2.220446e-16	1.326461e+00	0.000000e+00	0.000000e+00	2.876409e+05	1.000000e-10	1.150563e+05	3.021667e+02	0.000000e+00	1.877539e-01	1.856150e-05	2.709708e-03	0.000000e+00	-4.050829e+00	3.665477e-01	1.352580e-28	
1.054914e+00	2.220446e-16	1.326458e+00	0.000000e+00	0.000000e+00	2.876406e+05	1.000000e-10	1.150563e+05	3.021669e+02	0.000000e+00	1.877251e-01	1.856152e-05	2.693522e-03	0.000000e+00	-4.002578e+00	3.654507e-01	1.352569e-28	
1.097872e+00	2.220446e-16	1.326456e+00	0.000000e+00	0.000000e+00	2.876404e+05	1.000000e-10	1.150562e+05	3.021672e+02	0.000000e+00	1.876982e-01	1.856153e-05	2.678019e-03	0.000000e+00	-3.956634e+00	3.643970e-01	1.352558e-28	
1.140831e+00	2.220446e-16	1.326455e+00	0.000000e+00	0.000000e+00	2.876402e+05	1.000000e-10	1.150561e+05	3.021674e+02	0.000000e+00	1.876739e-01	1.856154e-05	2.663165e-03	0.000000e+00	-3.912864e+00	3.633846e-01	1.352548e-28	
1.183789e+00	2.220446e-16	1.326453e+00	0.000000e+00	0.000000e+00	2.876401e+05	1.000000e-10	1.150560e+05	3.021676e+02	0.000000e+00	1.876521e-01	1.856155e-05	2.648927e-03	0.000000e+00	-3.871136e+00	3.624114e-01	1.352539e-28	
1.226748e+00	2.220446e-16	1.326451e+00	0.000000e+00	0.000000e+00	2.876399e+05	1.000000e-10	1.150560e+05	3.021678e+02	0.000000e+00	1.876326e-01	1.856156e-05	2.635269e-03	0.000000e+00	-3.831320e+00	3.614755e-01	1.352530e-28	
1.269706e+00	2.220446e-16	1.326450e+00	0.000000e+00	0.000000e+00	2.876398e+05	1.000000e-10	1.150559e+05	3.021680e+02	0.000000e+00	1.876153e-01	1.856157e-05	2.622158e-03	0.000000e+00	-3.793291e+00	3.605748e-01	1.352522e-28	
1.312665e+00	2.220446e-16	1.326448e+00	0.000000e+00	0.000000e+00	2.876396e+05	1.000000e-10	1.150559e+05	3.021682e+02	0.000000e+00	1.876001e-01	1.856158e-05	2.609559e-03	0.000000e+00	-3.756926e+00	3.597071e-01	1.352514e-28	
1.355623e+00	2.220446e-16	1.326447e+00	0.000000e+00	0.000000e+00	2.876395e+05	1.000000e-10	1.150558e+05	3.021684e+02	0.000000e+00	1.875867e-01	1.856158e-05	2.597440e-03	0.000000e+00	-3.722114e+00	3.588706e-01	1.352507e-28	
1.398581e+00	2.220446e-16	1.326446e+00	0.000000e+00	0.000000e+00	2.876394e+05	1.000000e-10	1.150558e+05	3.021685e+02	0.000000e+00	1.875752e-01	1.856159e-05	2.585772e-03	0.000000e+00	-3.688750e+00	3.580634e-01	1.352500e-28	
1.441540e+00	2.220446e-16	1.326445e+00	0.000000e+00	0.000000e+00	2.876394e+05	1.000000e-10	1.150557e+05	3.021687e+02	0.000000e+00	1.875653e-01	1.856160e-05	2.574527e-03	0.000000e+00	-3.656736e+00	3.572836e-01	1.352494e-28	
1.484498e+00	2.220446e-16	1.326444e+00	0.000000e+00	0.000000e+00	2.876393e+05	1.000000e-10	1.150557e+05	3.021689e+02	0.000000e+00	1.875571e-01	1.856161e-05	2.563678e-03	0.000000e+00	-3.625982e+00	3.565297e-01	1.352488e-28	
1.527457e+00	2.220446e-16	1.326443e+00	0.000000e+00	0.000000e+00	2.876392e+05	1.000000e-10	1.150557e+05	3.021690e+02	0.000000e+00	1.875504e-01	1.856162e-05	2.553200e-03	0.000000e+00	-3.596404e+00	3.558001e-01	1.352483e-28	
1.570415e+00	2.220446e-16	1.326442e+00	0.000000e+00	0.000000e+00	2.876392e+05	1.000000e-10	1.150557e+05	3.021692e+02	0.000000e+00	1.875452e-01	1.856162e-05	2.543070e-03	0.000000e+00	-3.567924e+00	3.550933e-01	1.352478e-28	
1.613374e+00	2.220446e-16	1.326441e+00	0.000000e+00	0.000000e+00	2.876392e+05	1.000000e-10	1.150557e+05	3.021693e+02	0.000000e+00	1.875414e-01	1.856163e-05	2.533265e-03	0.000000e+00	-3.540467e+00	3.544079e-01	1.352473e-28	
1.656332e+00	2.220446e-16	1.326440e+00	0.000000e+00	0.000000e+00	2.876392e+05	1.000000e-10	1.150557e+05	3.021695e+02	0.000000e+00	1.875388e-01	1.856164e-05	2.523768e-03	0.000000e+00	-3.513973e+00	3.537428e-01	1.352469e-28	
1.699291e+00	2.220446e-16	1.326440e+00	0.000000e+00	0.000000e+00	2.876391e+05	1.000000e-10	1.150557e+05	3.021696e+02	0.000000e+00	1.875375e-01	1.856164e-05	2.514569e-03	0.000000e+00	-3.488404e+00	3.530973e-01	1.352464e-28	
1.742249e+00	2.220446e-16	1.326439e+00	0.000000e+00	0.000000e+00	2.876391e+05	1.000000e-10	1.150557e+05	3.021698e+02	0.000000e+00	1.875378e-01	1.856165e-05	2.505667e-03	0.000000e+00	-3.463751e+00	3.524715e-01	1.352461e-28	
1.785208e+00	2.220446e-16	1.326439e+00	0.000000e+00	0.000000e+00	2.876392e+05	1.000000e-10	1.150557e+05	3.021699e+02	0.000000e+00	1.875409e-01	1.856166e-05	2.497058e-03	0.000000e+00	-3.439991e+00	3.518652e-01	1.352457e-28	